<?xml version="1.0"?>
<VTKFile type="UnstructuredGrid"  version="0.1"  >
<UnstructuredGrid>
<Piece  NumberOfPoints="1089" NumberOfCells="2048">
<Points>
<DataArray  type="Float64"  NumberOfComponents="3"  format="ascii">0 0 0  0.03125 0 0  0.0625 0 0  0.09375 0 0  0.125 0 0  0.15625 0 0  0.1875 0 0  0.21875 0 0  0.25 0 0  0.28125 0 0  0.3125 0 0  0.34375 0 0  0.375 0 0  0.40625 0 0  0.4375 0 0  0.46875 0 0  0.5 0 0  0.53125 0 0  0.5625 0 0  0.59375 0 0  0.625 0 0  0.65625 0 0  0.6875 0 0  0.71875 0 0  0.75 0 0  0.78125 0 0  0.8125 0 0  0.84375 0 0  0.875 0 0  0.90625 0 0  0.9375 0 0  0.96875 0 0  1 0 0  0 0.03125 0  0.03125 0.03125 0  0.0625 0.03125 0  0.09375 0.03125 0  0.125 0.03125 0  0.15625 0.03125 0  0.1875 0.03125 0  0.21875 0.03125 0  0.25 0.03125 0  0.28125 0.03125 0  0.3125 0.03125 0  0.34375 0.03125 0  0.375 0.03125 0  0.40625 0.03125 0  0.4375 0.03125 0  0.46875 0.03125 0  0.5 0.03125 0  0.53125 0.03125 0  0.5625 0.03125 0  0.59375 0.03125 0  0.625 0.03125 0  0.65625 0.03125 0  0.6875 0.03125 0  0.71875 0.03125 0  0.75 0.03125 0  0.78125 0.03125 0  0.8125 0.03125 0  0.84375 0.03125 0  0.875 0.03125 0  0.90625 0.03125 0  0.9375 0.03125 0  0.96875 0.03125 0  1 0.03125 0  0 0.0625 0  0.03125 0.0625 0  0.0625 0.0625 0  0.09375 0.0625 0  0.125 0.0625 0  0.15625 0.0625 0  0.1875 0.0625 0  0.21875 0.0625 0  0.25 0.0625 0  0.28125 0.0625 0  0.3125 0.0625 0  0.34375 0.0625 0  0.375 0.0625 0  0.40625 0.0625 0  0.4375 0.0625 0  0.46875 0.0625 0  0.5 0.0625 0  0.53125 0.0625 0  0.5625 0.0625 0  0.59375 0.0625 0  0.625 0.0625 0  0.65625 0.0625 0  0.6875 0.0625 0  0.71875 0.0625 0  0.75 0.0625 0  0.78125 0.0625 0  0.8125 0.0625 0  0.84375 0.0625 0  0.875 0.0625 0  0.90625 0.0625 0  0.9375 0.0625 0  0.96875 0.0625 0  1 0.0625 0  0 0.09375 0  0.03125 0.09375 0  0.0625 0.09375 0  0.09375 0.09375 0  0.125 0.09375 0  0.15625 0.09375 0  0.1875 0.09375 0  0.21875 0.09375 0  0.25 0.09375 0  0.28125 0.09375 0  0.3125 0.09375 0  0.34375 0.09375 0  0.375 0.09375 0  0.40625 0.09375 0  0.4375 0.09375 0  0.46875 0.09375 0  0.5 0.09375 0  0.53125 0.09375 0  0.5625 0.09375 0  0.59375 0.09375 0  0.625 0.09375 0  0.65625 0.09375 0  0.6875 0.09375 0  0.71875 0.09375 0  0.75 0.09375 0  0.78125 0.09375 0  0.8125 0.09375 0  0.84375 0.09375 0  0.875 0.09375 0  0.90625 0.09375 0  0.9375 0.09375 0  0.96875 0.09375 0  1 0.09375 0  0 0.125 0  0.03125 0.125 0  0.0625 0.125 0  0.09375 0.125 0  0.125 0.125 0  0.15625 0.125 0  0.1875 0.125 0  0.21875 0.125 0  0.25 0.125 0  0.28125 0.125 0  0.3125 0.125 0  0.34375 0.125 0  0.375 0.125 0  0.40625 0.125 0  0.4375 0.125 0  0.46875 0.125 0  0.5 0.125 0  0.53125 0.125 0  0.5625 0.125 0  0.59375 0.125 0  0.625 0.125 0  0.65625 0.125 0  0.6875 0.125 0  0.71875 0.125 0  0.75 0.125 0  0.78125 0.125 0  0.8125 0.125 0  0.84375 0.125 0  0.875 0.125 0  0.90625 0.125 0  0.9375 0.125 0  0.96875 0.125 0  1 0.125 0  0 0.15625 0  0.03125 0.15625 0  0.0625 0.15625 0  0.09375 0.15625 0  0.125 0.15625 0  0.15625 0.15625 0  0.1875 0.15625 0  0.21875 0.15625 0  0.25 0.15625 0  0.28125 0.15625 0  0.3125 0.15625 0  0.34375 0.15625 0  0.375 0.15625 0  0.40625 0.15625 0  0.4375 0.15625 0  0.46875 0.15625 0  0.5 0.15625 0  0.53125 0.15625 0  0.5625 0.15625 0  0.59375 0.15625 0  0.625 0.15625 0  0.65625 0.15625 0  0.6875 0.15625 0  0.71875 0.15625 0  0.75 0.15625 0  0.78125 0.15625 0  0.8125 0.15625 0  0.84375 0.15625 0  0.875 0.15625 0  0.90625 0.15625 0  0.9375 0.15625 0  0.96875 0.15625 0  1 0.15625 0  0 0.1875 0  0.03125 0.1875 0  0.0625 0.1875 0  0.09375 0.1875 0  0.125 0.1875 0  0.15625 0.1875 0  0.1875 0.1875 0  0.21875 0.1875 0  0.25 0.1875 0  0.28125 0.1875 0  0.3125 0.1875 0  0.34375 0.1875 0  0.375 0.1875 0  0.40625 0.1875 0  0.4375 0.1875 0  0.46875 0.1875 0  0.5 0.1875 0  0.53125 0.1875 0  0.5625 0.1875 0  0.59375 0.1875 0  0.625 0.1875 0  0.65625 0.1875 0  0.6875 0.1875 0  0.71875 0.1875 0  0.75 0.1875 0  0.78125 0.1875 0  0.8125 0.1875 0  0.84375 0.1875 0  0.875 0.1875 0  0.90625 0.1875 0  0.9375 0.1875 0  0.96875 0.1875 0  1 0.1875 0  0 0.21875 0  0.03125 0.21875 0  0.0625 0.21875 0  0.09375 0.21875 0  0.125 0.21875 0  0.15625 0.21875 0  0.1875 0.21875 0  0.21875 0.21875 0  0.25 0.21875 0  0.28125 0.21875 0  0.3125 0.21875 0  0.34375 0.21875 0  0.375 0.21875 0  0.40625 0.21875 0  0.4375 0.21875 0  0.46875 0.21875 0  0.5 0.21875 0  0.53125 0.21875 0  0.5625 0.21875 0  0.59375 0.21875 0  0.625 0.21875 0  0.65625 0.21875 0  0.6875 0.21875 0  0.71875 0.21875 0  0.75 0.21875 0  0.78125 0.21875 0  0.8125 0.21875 0  0.84375 0.21875 0  0.875 0.21875 0  0.90625 0.21875 0  0.9375 0.21875 0  0.96875 0.21875 0  1 0.21875 0  0 0.25 0  0.03125 0.25 0  0.0625 0.25 0  0.09375 0.25 0  0.125 0.25 0  0.15625 0.25 0  0.1875 0.25 0  0.21875 0.25 0  0.25 0.25 0  0.28125 0.25 0  0.3125 0.25 0  0.34375 0.25 0  0.375 0.25 0  0.40625 0.25 0  0.4375 0.25 0  0.46875 0.25 0  0.5 0.25 0  0.53125 0.25 0  0.5625 0.25 0  0.59375 0.25 0  0.625 0.25 0  0.65625 0.25 0  0.6875 0.25 0  0.71875 0.25 0  0.75 0.25 0  0.78125 0.25 0  0.8125 0.25 0  0.84375 0.25 0  0.875 0.25 0  0.90625 0.25 0  0.9375 0.25 0  0.96875 0.25 0  1 0.25 0  0 0.28125 0  0.03125 0.28125 0  0.0625 0.28125 0  0.09375 0.28125 0  0.125 0.28125 0  0.15625 0.28125 0  0.1875 0.28125 0  0.21875 0.28125 0  0.25 0.28125 0  0.28125 0.28125 0  0.3125 0.28125 0  0.34375 0.28125 0  0.375 0.28125 0  0.40625 0.28125 0  0.4375 0.28125 0  0.46875 0.28125 0  0.5 0.28125 0  0.53125 0.28125 0  0.5625 0.28125 0  0.59375 0.28125 0  0.625 0.28125 0  0.65625 0.28125 0  0.6875 0.28125 0  0.71875 0.28125 0  0.75 0.28125 0  0.78125 0.28125 0  0.8125 0.28125 0  0.84375 0.28125 0  0.875 0.28125 0  0.90625 0.28125 0  0.9375 0.28125 0  0.96875 0.28125 0  1 0.28125 0  0 0.3125 0  0.03125 0.3125 0  0.0625 0.3125 0  0.09375 0.3125 0  0.125 0.3125 0  0.15625 0.3125 0  0.1875 0.3125 0  0.21875 0.3125 0  0.25 0.3125 0  0.28125 0.3125 0  0.3125 0.3125 0  0.34375 0.3125 0  0.375 0.3125 0  0.40625 0.3125 0  0.4375 0.3125 0  0.46875 0.3125 0  0.5 0.3125 0  0.53125 0.3125 0  0.5625 0.3125 0  0.59375 0.3125 0  0.625 0.3125 0  0.65625 0.3125 0  0.6875 0.3125 0  0.71875 0.3125 0  0.75 0.3125 0  0.78125 0.3125 0  0.8125 0.3125 0  0.84375 0.3125 0  0.875 0.3125 0  0.90625 0.3125 0  0.9375 0.3125 0  0.96875 0.3125 0  1 0.3125 0  0 0.34375 0  0.03125 0.34375 0  0.0625 0.34375 0  0.09375 0.34375 0  0.125 0.34375 0  0.15625 0.34375 0  0.1875 0.34375 0  0.21875 0.34375 0  0.25 0.34375 0  0.28125 0.34375 0  0.3125 0.34375 0  0.34375 0.34375 0  0.375 0.34375 0  0.40625 0.34375 0  0.4375 0.34375 0  0.46875 0.34375 0  0.5 0.34375 0  0.53125 0.34375 0  0.5625 0.34375 0  0.59375 0.34375 0  0.625 0.34375 0  0.65625 0.34375 0  0.6875 0.34375 0  0.71875 0.34375 0  0.75 0.34375 0  0.78125 0.34375 0  0.8125 0.34375 0  0.84375 0.34375 0  0.875 0.34375 0  0.90625 0.34375 0  0.9375 0.34375 0  0.96875 0.34375 0  1 0.34375 0  0 0.375 0  0.03125 0.375 0  0.0625 0.375 0  0.09375 0.375 0  0.125 0.375 0  0.15625 0.375 0  0.1875 0.375 0  0.21875 0.375 0  0.25 0.375 0  0.28125 0.375 0  0.3125 0.375 0  0.34375 0.375 0  0.375 0.375 0  0.40625 0.375 0  0.4375 0.375 0  0.46875 0.375 0  0.5 0.375 0  0.53125 0.375 0  0.5625 0.375 0  0.59375 0.375 0  0.625 0.375 0  0.65625 0.375 0  0.6875 0.375 0  0.71875 0.375 0  0.75 0.375 0  0.78125 0.375 0  0.8125 0.375 0  0.84375 0.375 0  0.875 0.375 0  0.90625 0.375 0  0.9375 0.375 0  0.96875 0.375 0  1 0.375 0  0 0.40625 0  0.03125 0.40625 0  0.0625 0.40625 0  0.09375 0.40625 0  0.125 0.40625 0  0.15625 0.40625 0  0.1875 0.40625 0  0.21875 0.40625 0  0.25 0.40625 0  0.28125 0.40625 0  0.3125 0.40625 0  0.34375 0.40625 0  0.375 0.40625 0  0.40625 0.40625 0  0.4375 0.40625 0  0.46875 0.40625 0  0.5 0.40625 0  0.53125 0.40625 0  0.5625 0.40625 0  0.59375 0.40625 0  0.625 0.40625 0  0.65625 0.40625 0  0.6875 0.40625 0  0.71875 0.40625 0  0.75 0.40625 0  0.78125 0.40625 0  0.8125 0.40625 0  0.84375 0.40625 0  0.875 0.40625 0  0.90625 0.40625 0  0.9375 0.40625 0  0.96875 0.40625 0  1 0.40625 0  0 0.4375 0  0.03125 0.4375 0  0.0625 0.4375 0  0.09375 0.4375 0  0.125 0.4375 0  0.15625 0.4375 0  0.1875 0.4375 0  0.21875 0.4375 0  0.25 0.4375 0  0.28125 0.4375 0  0.3125 0.4375 0  0.34375 0.4375 0  0.375 0.4375 0  0.40625 0.4375 0  0.4375 0.4375 0  0.46875 0.4375 0  0.5 0.4375 0  0.53125 0.4375 0  0.5625 0.4375 0  0.59375 0.4375 0  0.625 0.4375 0  0.65625 0.4375 0  0.6875 0.4375 0  0.71875 0.4375 0  0.75 0.4375 0  0.78125 0.4375 0  0.8125 0.4375 0  0.84375 0.4375 0  0.875 0.4375 0  0.90625 0.4375 0  0.9375 0.4375 0  0.96875 0.4375 0  1 0.4375 0  0 0.46875 0  0.03125 0.46875 0  0.0625 0.46875 0  0.09375 0.46875 0  0.125 0.46875 0  0.15625 0.46875 0  0.1875 0.46875 0  0.21875 0.46875 0  0.25 0.46875 0  0.28125 0.46875 0  0.3125 0.46875 0  0.34375 0.46875 0  0.375 0.46875 0  0.40625 0.46875 0  0.4375 0.46875 0  0.46875 0.46875 0  0.5 0.46875 0  0.53125 0.46875 0  0.5625 0.46875 0  0.59375 0.46875 0  0.625 0.46875 0  0.65625 0.46875 0  0.6875 0.46875 0  0.71875 0.46875 0  0.75 0.46875 0  0.78125 0.46875 0  0.8125 0.46875 0  0.84375 0.46875 0  0.875 0.46875 0  0.90625 0.46875 0  0.9375 0.46875 0  0.96875 0.46875 0  1 0.46875 0  0 0.5 0  0.03125 0.5 0  0.0625 0.5 0  0.09375 0.5 0  0.125 0.5 0  0.15625 0.5 0  0.1875 0.5 0  0.21875 0.5 0  0.25 0.5 0  0.28125 0.5 0  0.3125 0.5 0  0.34375 0.5 0  0.375 0.5 0  0.40625 0.5 0  0.4375 0.5 0  0.46875 0.5 0  0.5 0.5 0  0.53125 0.5 0  0.5625 0.5 0  0.59375 0.5 0  0.625 0.5 0  0.65625 0.5 0  0.6875 0.5 0  0.71875 0.5 0  0.75 0.5 0  0.78125 0.5 0  0.8125 0.5 0  0.84375 0.5 0  0.875 0.5 0  0.90625 0.5 0  0.9375 0.5 0  0.96875 0.5 0  1 0.5 0  0 0.53125 0  0.03125 0.53125 0  0.0625 0.53125 0  0.09375 0.53125 0  0.125 0.53125 0  0.15625 0.53125 0  0.1875 0.53125 0  0.21875 0.53125 0  0.25 0.53125 0  0.28125 0.53125 0  0.3125 0.53125 0  0.34375 0.53125 0  0.375 0.53125 0  0.40625 0.53125 0  0.4375 0.53125 0  0.46875 0.53125 0  0.5 0.53125 0  0.53125 0.53125 0  0.5625 0.53125 0  0.59375 0.53125 0  0.625 0.53125 0  0.65625 0.53125 0  0.6875 0.53125 0  0.71875 0.53125 0  0.75 0.53125 0  0.78125 0.531
[...]
<PointData  Scalars="f_9"> 
<DataArray  type="Float64"  Name="f_9"  format="ascii">0.0000000000000000e+00  4.2051606312108802e-02  8.3284294561221425e-02  1.2289677481213912e-01  1.6012262858412565e-01  1.9424680079582682e-01  2.2462100863564047e-01  2.5067778384238104e-01  2.7194292064394271e-01  2.8804615657102861e-01  2.9872995676896485e-01  3.0385629278701232e-01  3.0341129564129576e-01  2.9750762032622269e-01  2.8638429921775599e-01  2.7040381545305969e-01  2.5004613519674190e-01  2.2589953633609161e-01  1.9864827498945126e-01  1.6905742125877254e-01  1.3795552456512084e-01  1.0621608355163403e-01  7.4739068626586358e-02  4.4434005359377277e-02  1.6206487948307022e-02  -9.0492900712849794e-03  -3.0447750851450461e-02  -4.7090592631251239e-02  -5.8007660691876087e-02  -6.2007599538765168e-02  -5.7270674465412265e-02  -4.0064016767795189e-02  0.0000000000000000e+00  0.0000000000000000e+00  3.7607982505158850e-02  7.4506475490318330e-02  1.1000092904689136e-01  1.4342634876739396e-01  1.7416128147667989e-01  2.0164089756748343e-01  2.2536894277116071e-01  2.4492838572715914e-01  2.5999064034598440e-01  2.7032328226041463e-01  2.7579619348201762e-01  2.7638604766190389e-01  2.7217898765550513e-01  2.6337126109821113e-01  2.5026750213444154e-01  2.3327632663155229e-01  2.1290298993741105e-01  1.8973906061801166e-01  1.6444936929536422e-01  1.3775684038102767e-01  1.1042613756362156e-01  8.3247309211614134e-02  5.7020821362271414e-02  3.2545598881708528e-02  1.0612127401122856e-02  -7.9964191412116910e-03  -2.2490221291160871e-02  -3.2037976894055825e-02  -3.5699795491555109e-02  -3.2328726257207632e-02  -2.0574908662197886e-02  0.0000000000000000e+00  0.0000000000000000e+00  3.3873848213652795e-02  6.7132695829810130e-02  9.9174117051745253e-02  1.2942055574463168e-01  1.5733107812629785e-01  1.8241235562180258e-01  2.0422869959485226e-01  2.2241102939645549e-01  2.3666471698585545e-01  2.4677630178372245e-01  2.5261908968951313e-01  2.5415762007598519e-01  2.5145089167594759e-01  2.4465409207914857e-01  2.3401841882107632e-01  2.1988848572862568e-01  2.0269685378641969e-01  1.8295545213733161e-01  1.6124403354341954e-01  1.3819624437549574e-01  1.1448426211675718e-01  9.0803177248443334e-02  6.7856355034442095e-02  4.6342950659910592e-02  2.6948616373656115e-02  1.0340166763741082e-02  -2.8358970072509320e-03  -1.1954230268274533e-02  -1.6424879325736382e-02  -1.5769526423045046e-02  -9.9068916270707470e-03  0.0000000000000000e+00  0.0000000000000000e+00  3.0754714501450647e-02  6.0976342490840690e-02  9.0142287321927056e-02  1.1775067816412124e-01  1.4333011706177284e-01  1.6644874013192013e-01  1.8672245314856503e-01  2.0382227618158397e-01  2.1748081682234713e-01  2.2749797102343627e-01  2.3374599624640385e-01  2.3617407425110334e-01  2.3481234453624147e-01  2.2977513937963123e-01  2.2126284398326060e-01  2.0956156359295469e-01  1.9503975168641896e-01  1.7814123043760552e-01  1.5937457804515884e-01  1.3929949491837573e-01  1.1851126680259932e-01  9.7624652893110342e-02  7.7258402144054800e-02  5.8021199282971864e-02  4.0499206217536513e-02  2.5244361092110177e-02  1.2760694697578579e-02  3.4818314761743260e-03  -2.2759653217349612e-03  -4.4176085366681630e-03  -3.2831314364198195e-03  0.0000000000000000e+00  0.0000000000000000e+00  2.8168667235340245e-02  5.5875672046454175e-02  8.2668010623592927e-02  1.0810974937164612e-01  1.3178996237364587e-01  1.5333000899551302e-01  1.7239003321595567e-01  1.8867466299683003e-01  2.0193801308354267e-01  2.1198823263812480e-01  2.1869194824325294e-01  2.2197895967642539e-01  2.2184736448206616e-01  2.1836887375304903e-01  2.1169350532818496e-01  2.0205231704830579e-01  1.8975666371282218e-01  1.7519282947486922e-01  1.5881175426857344e-01  1.4111461802240008e-01  1.2263583978373388e-01  1.0392528829144597e-01  8.5531148457642259e-02  6.7984116327824695e-02  5.1782594853788597e-02  3.7377355525669231e-02  2.5152475591247961e-02  1.5396824293225413e-02  8.2567943536988285e-03  3.6581888328630686e-03  1.1919743685150277e-03  0.0000000000000000e+00  0.0000000000000000e+00  2.6044282176208904e-02  5.1689666967074367e-02  7.6544330597837093e-02  1.0023033591231438e-01  1.2238994286891744e-01  1.4269121537637225e-01  1.6083279795788305e-01  1.7654785870618322e-01  1.8960738015696049e-01  1.9982322129701224e-01  2.0705161626109975e-01  2.1119788752009183e-01  2.1222294769796635e-01  2.1015150608999950e-01  2.0508085258961017e-01  1.9718803886327904e-01  1.8673278782119196e-01  1.7405397552662560e-01  1.5955899613676547e-01  1.4370713944507024e-01  1.2698945752109841e-01  1.0990791849022194e-01  9.2955941668892081e-02  7.6601115320103608e-02  6.1269523011430627e-02  4.7329919656753996e-02  3.5075002237750799e-02  2.4696187349519731e-02  1.6248127106538980e-02  9.6015944681359031e-03  4.3928399109735864e-03  0.0000000000000000e+00  0.0000000000000000e+00  2.4318793852703670e-02  4.8294380447492707e-02  7.1589299437260445e-02  9.3877289614122908e-02  1.1484816429156504e-01  1.3421185705754113e-01  1.5170145490271675e-01  1.6707517964236715e-01  1.8011754307068278e-01  1.9064031199526918e-01  1.9848441482950577e-01  2.0352428046583304e-01  2.0567594849877355e-01  2.0490928387035606e-01  2.0126279277268172e-01  1.9485751497832540e-01  1.8590536458969892e-01  1.7470801614220141e-01  1.6164496695977412e-01  1.4715263059860073e-01  1.3169866055463125e-01  1.1575615174839296e-01  9.9781017535858746e-02  8.4193642343940236e-02  6.9363919908216887e-02  5.5597582052304792e-02  4.3121348350480877e-02  3.2064770149795904e-02  2.2437924616768686e-02  1.4107219953055958e-02  6.7777902981172146e-03  0.0000000000000000e+00  0.0000000000000000e+00  2.2936511022462955e-02  4.5579754466275720e-02  6.7641171389562105e-02  8.8841273931193648e-02  1.0891331300004432e-01  1.2760589996449689e-01  1.4468426849121796e-01  1.5993000438375057e-01  1.7313942652663811e-01  1.8412147052733818e-01  1.9269686752620641e-01  1.9870126957113174e-01  2.0199504094846749e-01  2.0248096129848539e-01  2.0012794772967635e-01  1.9499517535768748e-01  1.8724871509594423e-01  1.7716381688846644e-01  1.6511032526400221e-01  1.5152438178695873e-01  1.3687362394117472e-01  1.2162368659173875e-01  1.0621125499420420e-01  9.1025099782720331e-02  7.6393434232116933e-02  6.2574543734845278e-02  4.9747823162211470e-02  3.8003549373638118e-02  2.7331560093768598e-02  1.7611564691541359e-02  8.6110999155387096e-03  0.0000000000000000e+00  0.0000000000000000e+00  2.1847491418105453e-02  4.3446937564159849e-02  6.4554294253570593e-02  8.4933111956013774e-02  1.0435728418261740e-01  1.2261244484732631e-01  1.3949546473561930e-01  1.5481158523028310e-01  1.6836916569909124e-01  1.7997305659080129e-01  1.8941927974747863e-01  1.9649546519022149e-01  2.0099209351829378e-01  2.0272753431337517e-01  2.0158468601756613e-01  1.9755044274370021e-01  1.9074490909823644e-01  1.8142863983961954e-01  1.6998351027372727e-01  1.5687253364500642e-01  1.4259079020443083e-01  1.2762036250930536e-01  1.1239748069781626e-01  9.7293501036117766e-02  8.2606414880599152e-02  6.8557837499672980e-02  5.5291308883022125e-02  4.2869865756083189e-02  3.1273148425506915e-02  2.0396364351488710e-02  1.0055041110872799e-02  0.0000000000000000e+00  0.0000000000000000e+00  2.1006507334705788e-02  4.1806171022316499e-02  6.2195813742408373e-02  8.1979124656618926e-02  1.0096885285639302e-01  1.1898727300043664e-01  1.3586400272915367e-01  1.5143019754549089e-01  1.6550863069177493e-01  1.7790068826323643e-01  1.8837408591000909e-01  1.9665838120616416e-01  2.0245698647916230e-01  2.0548165783753147e-01  2.0550721320038937e-01  2.0243318217841816e-01  1.9633143877408846e-01  1.8746059508361826e-01  1.7623981670529612e-01  1.6319072213497979e-01  1.4886718393008039e-01  1.3379365201259671e-01  1.1842444516777352e-01  1.0312549941938513e-01  8.8172320229986723e-02  7.3755665671363962e-02  5.9988471185794062e-02  4.6911048945373221e-02  3.4494681718126308e-02  2.2645670111169976e-02  1.1212692021241555e-02  0.0000000000000000e+00  0.0000000000000000e+00  2.0372347058921252e-02  4.0575345853079620e-02  6.0443375022157284e-02  7.9817760351752171e-02  9.8548845115477790e-02  1.1649591760737740e-01  1.3352355320937834e-01  1.4949260777388415e-01  1.6424454570901983e-01  1.7757990736249479e-01  1.8923604829232143e-01  1.9887480009295164e-01  2.0609404854146859e-01  2.1047380900170029e-01  2.1165494665618592e-01  2.0943114981354100e-01  2.0382207555668003e-01  1.9509764316088357e-01  1.8374182562177091e-01  1.7036938972428958e-01  1.5562638680870047e-01  1.4010596849118540e-01  1.2429772243302908e-01  1.0857137215979841e-01  9.3183965579916039e-02  7.8296954381996686e-02  6.3993294371675127e-02  5.0290331723137849e-02  3.7148606482402494e-02  2.4478873630735060e-02  1.2150039900979820e-02  0.0000000000000000e+00  0.0000000000000000e+00  1.9907498386930466e-02  3.9679343133253268e-02  5.9184043538242130e-02  7.8297919707499525e-02  9.6907505509793643e-02  1.1490940084767910e-01  1.3220546525666033e-01  1.4869051250558676e-01  1.6422996451005969e-01  1.7862772009012701e-01  1.9159081399038691e-01  2.0270600829904467e-01  2.1144930620940999e-01  2.1724535454044880e-01  2.1957589640769079e-01  2.1811027499770880e-01  2.1281140803283782e-01  2.0397290581610039e-01  1.9216987710966149e-01  1.7814313770509155e-01  1.6266209550406116e-01  1.4641220566569932e-01  1.2993245596131700e-01  1.1360246067622440e-01  9.7661862374004607e-02  8.2241568083910477e-02  6.7392585464713523e-02  5.3106783552025125e-02  3.9330061771712818e-02  2.5971048290538402e-02  1.2908561906408763e-02  0.0000000000000000e+00  0.0000000000000000e+00  1.9578241826320803e-02  3.9050237584837319e-02  5.8314634511748627e-02  7.7279381279252046e-02  9.5864863213982021e-02  1.1400413194727030e-01  1.3163735903462567e-01  1.4869636870906705e-01  1.6507513360466944e-01  1.8058560868412343e-01  1.9490690920838760e-01  2.0754810559635725e-01  2.1785395904919508e-01  2.2507846458015213e-01  2.2852704411242952e-01  2.2773174239248395e-01  2.2259572989815890e-01  2.1344565182885794e-01  2.0096728065751474e-01  1.8605156822419605e-01  1.6961360817366505e-01  1.5244739312104838e-01  1.3515025051070154e-01  1.1811469541762110e-01  1.0156247852902807e-01  8.5592091705668991e-02  7.0220424040506907e-02  5.5411426751144563e-02  4.1092991263465113e-02  2.7166473376428177e-02  1.3513104440663566e-02  0.0000000000000000e+00  0.0000000000000000e+00  1.9355137540703515e-02  3.8628353842553621e-02  5.7743499175305545e-02  7.6635543474590728e-02  9.5254688140569393e-02  1.1356730324896515e-01  1.3155004607170642e-01  1.4917163297356875e-01  1.6635640536311555e-01  1.8292795780050164e-01  1.9854210125561000e-01  2.1263464716766564e-01  2.2442210907337085e-01  2.3298875853143908e-01  2.3746306314290516e-01  2.3723911231904271e-01  2.3216142541761203e-01  2.2259349896701178e-01  2.0933786851062999e-01  1.9344243837270450e-01  1.7597375558719691e-01  1.5783802150751192e-01  1.3969249300757314e-01  1.2194286177460135e-01  1.0479285091976663e-01  8.8308522521261951e-02  7.2472736739084401e-02  5.7221264474734052e-02  4.2462730726725857e-02  2.8088402968642765e-02  1.3977296755308993e-02  0.0000000000000000e+00  0.0000000000000000e+00  1.9213824634204266e-02  3.8364018712457933e-02  5.7393556516111617e-02  7.6258273038653443e-02  9.4931958423805224e-02  1.1340810582384314e-01  1.3169399812248078e-01  1.4979036460843723e-01  1.6764913226053113e-01  1.8510642351650755e-01  2.0180103643840230e-01  2.1710842200783426e-01  2.3013611437284592e-01  2.3982192908129552e-01  2.4514024995738679e-01  2.4536446046603064e-01  2.4028793174229127e-01  2.3030745275714631e-01  2.1632972837205006e-01  1.9954240421208153e-01  1.8114659565673774e-01  1.6214786852727639e-01  1.4325622453038947e-01  1.2488868211245960e-01  1.0723291570709284e-01  9.0326511023001127e-02  7.4122587572816187e-02  5.8532168286881271e-02  4.3446465187400300e-02  2.8746620695780219e-02  1.4307558231704202e-02  0.0000000000000000e+00  0.0000000000000000e+00  1.9135978977662400e-02  3.8219682515234214e-02  5.7206031971204392e-02  7.6064054007791898e-02  9.4782700243138673e-02  1.1337323667863723e-01  1.3186343765386976e-01  1.5027595649554423e-01  1.6858224719856549e-01  1.8662833913542873e-01  2.0404325701081544e-01  2.2016314796532704e-01  2.3402252908085058e-01  2.4445959642687531e-01  2.5034277882494965e-01  2.5086158426758970e-01  2.4577308391672864e-01  2.3549626526808193e-01  2.2100959065454148e-01  2.0359766247018776e-01  1.8455531116823551e-01  1.6495746184910171e-01  1.4555101261966316e-01  1.2676099842332494e-01  1.0876404756104564e-01  9.1578077686592999e-02  7.5135661710823587e-02  5.9330661958724412e-02  4.4042030633570428e-02  2.9143426231503528e-02  1.4506159363239140e-02  0.0000000000000000e+00  0.0000000000000000e+00  1.9110222227344445e-02  3.8171949040783200e-02  5.7144086034484620e-02  7.6000076839656663e-02  9.4733984558024703e-02  1.1336313107093839e-01  1.3192238384653213e-01  1.5044217043818131e-01  1.6890118079090191e-01  1.8714971061440411e-01  2.0481453918011375e-01  2.2121937383532164e-01  2.3537416990703147e-01  2.4608238040603930e-01  2.5217425699685497e-01  2.5280777200629279e-01  2.4772468373988499e-01  2.3734962933226383e-01  2.2268527776390240e-01  2.0505065192504851e-01  1.8577487883421179e-01  1.6595899263586247e-01  1.4636437249643569e-01  1.2741985146053803e-01  1.0929860397748417e-01  9.2011666130368902e-02  7.5484211032818660e-02  5.9603818383119574e-02  4.4244873940779680e-02  2.9278158577532697e-02  1.4573470612179847e-02  0.0000000000000000e+00  0.0000000000000000e+00  1.9132767361943071e-02  3.8213025303569723e-02  5.7195430361086513e-02  7.6048686062343093e-02  9.4761347062682397e-02  1.1334423087060493e-01  1.3182471534003518e-01  1.5022534229685439e-01  1.6851811073050321e-01  1.8655066348600091e-01  2.0395491191563200e-01  2.2007083004621852e-01  2.3393663844877524e-01  2.4439253471558348e-01  2.5030585489378099e-01  2.5086158426758975e-01  2.4581000784789742e-01  2.3556332697937388e-01  2.2109548128661677e-01  2.0368998038929620e-01  1.8464365626341900e-01  1.6503513749852955e-01  1.4561514908772549e-01  1.2681161262201476e-01  1.0880276987488025e-01  9.1607083494625277e-02  7.5157014891279850e-02  5.9346029904173189e-02  4.4052632243688272e-02  2.9150083443167989e-02  1.4509370978958439e-02  0.0000000000000000e+00  0.0000000000000000e+00  1.9207639539289199e-02  3.8351218794574524e-02  5.7373228828074857e-02  7.6228921165443969e-02  9.4891378167414706e-02  1.1335330568763109e-01  1.3162130989646159e-01  1.4969597273910457e-01  1.6753026316885467e-01  1.8496325823809501e-01  2.0163896908749179e-01  2.1693970406430127e-01  2.2997959038232413e-01  2.3969996070209093e-01  2.4507317294602907e-01  2.4536446046603072e-01  2.4035500875364918e-01  2.3042942113635112e-01  2.1648625236257213e-01  1.9971112215561454e-01  1.8130866300764834e-01  1.6229103380568899e-01  1.4337509362206605e-01  1.2498307398179226e-01  1.0730560393311198e-01  9.0381311159213135e-02  7.4163167829206691e-02  5.8561520160090724e-02  4.3466792875437026e-02  2.8759420613663586e-02  1.4313743326619244e-02  0.0000000000000000e+00  0.0000000000000000e+00  1.9346415888150750e-02  3.8610351343494248e-02  5.7715034584551003e-02  7.6594697650093066e-02  9.5198666222426939e-02  1.1349236321180262e-01  1.3145167460697721e-01  1.4904524757981785e-01  1.6619886911312989e-01  1.8273996664466791e-01  1.9833095899977829e-01  2.1241623476452456e-01  2.2422046096032761e-01  2.3283215808527688e-01  2.3737711131056624e-01  2.3723911231904282e-01  2.3224737724995131e-01  2.2275009941317434e-01  2.0953951662367334e-01  1.9366085077584561e-01  1.7618489784302871e-01  1.5802601266334576e-01  1.3985002925755879e-01  1.2206924716835220e-01  1.0489122238449580e-01  8.8383462558424428e-02  7.2528758657226786e-02  5.7262110299231658e-02  4.2491195317480343e-02  2.8106405467702093e-02  1.3986018407861740e-02  0.0000000000000000e+00  0.0000000000000000e+00  1.9567551289594094e-02  3.9028245786372928e-02  5.8280061503880660e-02  7.7230173232850155e-02  9.5798077513378904e-02  1.1391590663264854e-01  1.3152315259274447e-01  1.4855174821907491e-01  1.6489738535209092e-01  1.8037620444071523e-01  1.9467430686426046e-01  2.0730965807697790e-01  2.1763533293594620e-01  2.2490950201432131e-01  2.2843457314797247e-01  2.2773174239248412e-01  2.2268820086261629e-01  2.1361461439468904e-01  2.0118590677076376e-01  1.8629001574357551e-01  1.6984621051779225e-01  1.5265679736445656e-01  1.3532799876328003e-01  1.1825931590761316e-01  1.0167668497090918e-01  8.5680317020290650e-02  7.0287209741109913e-02  5.5460634797546357e-02  4.1127564271332996e-02  2.7188465174892533e-02  1.3523794977390253e-02  0.0000000000000000e+00  0.0000000000000000e+00  1.9895457759344381e-02  3.9654672466119784e-02  5.9145519983899546e-02  7.8243612590200934e-02  9.6834708464173830e-02  1.1481465956469963e-01  1.3208486721322629e-01  1.4854047717171737e-01  1.6404875510019701e-01  1.7841767227522598e-01  1.9136078568141271e-01  2.0247294975537206e-01  2.1123755373544448e-01  2.1708275191144358e-01  2.1948724495367428e-01  2.1811027499770891e-01  2.1290005948685445e-01  2.0413550844510572e-01  1.9238162958362712e-01  1.7837619624876419e-01  1.6289212381303536e-01  1.4662225348060023e-01  1.3011366537117952e-01  1.1375249601009361e-01  9.7782460417438488e-02  8.2336309366889807e-02  6.7465382510333155e-02  5.3161090669323556e-02  3.9368585326055305e-02  2.5995718957671832e-02  1.2920602533994817e-02  0.0000000000000000e+00  0.0000000000000000e+00  2.0359552288210410e-02  4.0549243857993474e-02  6.0402915876976666e-02  7.9761320182488438e-02  9.8474212377679532e-02  1.1640037753949176e-01  1.3340420289680435e-01  1.4934708136221472e-01  1.6407230104214027e-01  1.7738403429339369e-01  1.8902517016770393e-01  1.9866418126949537e-01  2.0590482170084759e-01  2.1032966381017359e-01  2.1157673389486914e-01  2.0943114981354105e-01  2.0390028831799684e-01  1.9524178835241032e-01  1.8393105246239191e-01  1.7058000854774580e-01  1.5583726493331782e-01  1.4030184156028633e-01  1.2446996709990846e-01  1.0871689857146757e-01  9.3303315892489830e-02  7.8392494449882139e-02  6.4067927109473219e-02  5.0346771892401443e-02  3.7189065627583034e-02  2.4504975625821167e-02  1.2162834671690641e-02  0.0000000000000000e+00  0.0000000000000000e+00  2.0993475489969889e-02  4.1779705062817481e-02  6.2155102397627254e-02  8.1922946344021211e-02  1.0089560859350566e-01  1.1889511149766238e-01  1.3575113229840685e-01  1.5129550380755796e-01  1.6535268546071358e-01  1.7772708664378861e-01  1.8819076984132857e-01  1.9647829682744222e-01  2.0229731220132399e-01  2.0536117716816935e-01  2.0544221455671849e-01  2.0243318217841816e-01  1.9639643741775931e-01  1.8758107575298044e-01  1.7639949098313440e-01  1.6337080651370148e-01  1.4905049999876060e-01  1.3396725363204431e-01  1.1858039039883461e-01  1.0326019315731777e-01  8.8285190660733315e-02  7.3847827174137987e-02  6.0061715448681205e-02  4.6967227257970798e-02  3.4535393062907357e-02  2.2672136070668970e-02  1.1225723865977437e-02  0.0000000000000000e+00  0.0000000000000000e+00  2.1834627646908036e-02  4.3420929782591038e-02  6.4514589398641048e-02  8.4878908804112002e-02  1.0428759728291777e-01  1.2252624817123994e-01  1.3939197562292016e-01  1.5469075702503271e-01  1.6823242424110058e-01  1.7982420902767643e-01  1.8926534116676613e-01  1.9634695946237438e-01  2.0086233940174839e-01  2.0263067624987594e-01  2.0153277180601625e-01  1.9755044274370021e-01  1.9079682330978617e-01  1.8152549790311878e-01  1.7011326439027255e-01  1.5702103937285336e-01  1.4274472878514308e-01  1.2776921007242997e-01  1.1253422215580666e-01  9.7414329241367850e-02  8.2709903993298084e-02  6.8644034175759178e-02  5.5360995782721620e-02  4.2924068907984878e-02  3.1312853280436433e-02  2.0422372133057521e-02  1.0067904882070215e-02  0.0000000000000000e+00  0.0000000000000000e+00  2.2924097159848993e-02  4.5554763955133776e-02  6.7603294827672980e-02  